2400
Step=0 Box=20.0000
HEAD 0.749765 0.704410 0.760549
TAIL 0.823074 0.697560 2.126133
TAIL 0.827087 0.769102 3.537895
TAIL 0.753040 0.681184 4.966734
TAIL 0.731569 0.577623 6.305363
HEAD 0.674122 0.641941 7.879589
TAIL 0.649427 0.613407 9.390403
TAIL 0.698159 0.719109 10.612518
TAIL 0.675401 0.722209 12.060643
TAIL 0.741121 0.671383 13.550593
HEAD 0.671307 0.846591 14.999036
TAIL 0.638735 0.773039 16.341368
TAIL 0.729205 0.574309 17.762272
TAIL 0.728347 0.767033 19.297955
TAIL 0.706025 2.121350 0.608677
HEAD 0.662868 2.109954 2.218366
TAIL 0.738830 2.016926 3.594577
TAIL 0.686780 2.094506 5.043691
TAIL 0.787929 2.209377 6.368627
TAIL 0.692199 2.166519 7.926825
HEAD 0.680059 2.129596 9.206690
TAIL 0.628842 2.200895 10.811160
TAIL 0.709142 2.214538 12.168688
TAIL 0.668206 2.168671 13.681288
TAIL 0.711727 2.254617 14.812875
HEAD 0.772993 2.149075 16.407214
TAIL 0.720840 2.000888 17.841452
TAIL 0.739794 2.248421 19.248695
TAIL 0.656536 3.535589 0.779672
TAIL 0.737768 3.533589 2.179519
HEAD 0.721220 3.640617 3.521282
TAIL 0.690881 3.543421 4.895463
TAIL 0.735437 3.590075 6.428937
TAIL 0.697529 3.470331 7.827097
TAIL 0.689806 3.514123 9.274194
HEAD 0.743146 3.706156 10.726756
TAIL 0.732682 3.566111 12.005802
TAIL 0.712392 3.575731 13.747374
TAIL 0.700546 3.592968 14.997521
TAIL 0.630809 3.653059 16.482281
HEAD 0.770788 3.506472 17.957342
TAIL 0.614153 3.613347 19.442175
TAIL 0.643533 4.959550 0.721404
TAIL 0.678323 4.889238 2.147754
TAIL 0.638407 5.033828 3.505755
HEAD 0.824995 4.944053 4.976996
TAIL 0.772394 4.912081 6.444819
TAIL 0.807653 4.885180 7.870331
TAIL 0.732849 5.055844 9.197361
TAIL 0.619967 5.037282 10.735499
HEAD 0.732178 5.024746 12.094284
TAIL 0.730875 5.020934 13.520403
TAIL 0.847555 5.033845 14.914907
TAIL 0.761182 4.930380 16.484792
TAIL 0.797043 4.941380 17.925955
HEAD 0.743770 5.058719 19.421199
TAIL 0.696758 6.374733 0.650749
TAIL 0.656014 6.423064 2.167225
TAIL 0.734049 6.487656 3.572357
TAIL 0.818110 6.409667 5.194298
HEAD 0.758976 6.367346 6.352079
TAIL 0.748748 6.412610 7.908143
TAIL 0.748088 6.423369 9.225229
TAIL 0.606082 6.396678 10.775457
TAIL 0.729578 6.339590 12.155227
HEAD 0.741808 6.365439 13.582409
TAIL 0.718443 6.346931 15.025556
TAIL 0.754342 6.505932 16.503843
TAIL 0.615881 6.361584 17.893931
TAIL 0.750985 6.465361 19.560909
HEAD 0.755064 7.938255 0.782429
TAIL 0.760814 7.834624 2.197069
TAIL 0.659084 7.840227 3.536760
TAIL 0.720134 8.022476 4.866624
TAIL 0.763304 7.741949 6.394862
HEAD 0.792068 7.861734 7.780161
TAIL 0.663193 7.905686 9.233545
TAIL 0.729747 7.860398 10.667743
TAIL 0.867425 7.902423 11.998204
TAIL 0.727604 7.809872 13.632317
HEAD 0.657677 7.848947 15.036071
TAIL 0.776125 7.771407 16.404678
TAIL 0.680361 7.810476 17.983247
TAIL 0.743213 7.767080 19.351276
TAIL 0.865868 9.359462 0.605759
HEAD 0.679698 9.376208 2.092309
TAIL 0.745987 9.341045 3.505219
TAIL 0.710034 9.054195 4.926829
TAIL 0.696245 9.196587 6.545172
TAIL 0.612133 9.254283 7.866481
HEAD 0.817234 9.183153 9.368797
TAIL 0.715017 9.215607 10.747293
TAIL 0.728504 9.242842 12.147843
TAIL 0.686763 9.293823 13.618724
TAIL 0.827573 9.197299 15.152360
HEAD 0.574851 9.274872 16.470594
TAIL 0.734357 9.241236 17.842277
TAIL 0.679071 9.243617 19.346400
TAIL 0.739787 10.664792 0.778543
TAIL 0.736236 10.772347 2.187831
HEAD 0.655072 10.674273 3.624807
TAIL 0.757884 10.712793 5.008381
TAIL 0.805547 10.672031 6.467650
TAIL 0.699843 10.698737 7.935627
TAIL 0.773244 10.772394 9.378963
HEAD 0.715786 10.762997 10.692124
TAIL 0.737440 10.704990 12.149785
TAIL 0.756797 10.655841 13.720885
TAIL 0.642427 10.627558 15.082722
TAIL 0.770833 10.758866 16.473453
HEAD 0.713411 10.650196 17.862557
TAIL 0.665917 10.783937 19.275210
TAIL 0.655322 12.119901 0.743781
TAIL 0.674020 12.084127 2.160263
TAIL 0.731783 12.106647 3.537783
HEAD 0.730861 12.039423 4.899467
TAIL 0.662968 12.127611 6.450779
TAIL 0.819668 12.204119 7.845719
TAIL 0.712927 12.071248 9.284392
TAIL 0.693667 12.165908 10.655198
HEAD 0.751382 12.252338 12.135089
TAIL 0.742979 12.192153 13.542770
TAIL 0.730292 12.143757 15.006977
TAIL 0.659071 12.144608 16.464143
TAIL 0.817939 12.211376 18.010942
HEAD 0.659475 12.205166 19.298810
TAIL 0.870700 13.513693 0.654306
TAIL 0.671472 13.419722 2.105303
TAIL 0.660062 13.582171 3.595840
TAIL 0.848298 13.639316 4.958793
HEAD 0.650113 13.606566 6.334269
TAIL 0.845104 13.655674 7.823630
TAIL 0.591919 13.668134 9.277533
TAIL 0.802701 13.457541 10.671473
TAIL 0.714660 13.574784 12.110710
HEAD 0.758775 13.495170 13.561259
TAIL 0.722878 13.608174 15.050830
TAIL 0.633954 13.461849 16.519834
TAIL 0.738022 13.517965 17.967939
TAIL 0.722548 13.655664 19.290537
HEAD 0.861482 15.125381 0.696503
TAIL 0.783684 15.046098 2.240617
TAIL 0.645363 15.049004 3.647030
TAIL 0.588661 14.915482 4.854341
TAIL 0.695042 15.051253 6.535883
HEAD 0.719578 15.116330 7.758564
TAIL 0.592616 14.996032 9.313148
TAIL 0.711950 14.852326 10.707920
TAIL 0.621109 15.047834 12.169043
TAIL 0.647151 14.963295 13.495770
HEAD 0.709809 15.068224 14.929591
TAIL 0.750289 14.962124 16.371938
TAIL 0.706641 14.926054 17.817596
TAIL 0.628723 15.140338 19.288233
TAIL 0.664305 16.443856 0.706262
HEAD 0.698502 16.472440 2.196965
TAIL 0.676393 16.387442 3.551782
TAIL 0.549863 16.320343 5.097634
TAIL 0.831783 16.410783 6.469754
TAIL 0.736518 16.648491 7.937112
HEAD 0.705149 16.360319 9.170968
TAIL 0.728819 16.374546 10.612696
TAIL 0.668102 16.351318 12.263367
TAIL 0.777260 16.428002 13.677139
TAIL 0.719812 16.367051 15.108795
HEAD 0.752779 16.354482 16.414976
TAIL 0.651742 16.329800 17.923298
TAIL 0.850673 16.328674 19.325926
TAIL 0.667811 17.822348 0.671972
TAIL 0.652572 17.860609 2.083504
HEAD 0.733604 17.853554 3.554361
TAIL 0.649460 17.815945 5.053957
TAIL 0.750066 17.787317 6.435667
TAIL 0.767956 17.737900 7.895954
TAIL 0.666955 17.897900 9.231196
HEAD 0.585366 17.740890 10.717720
TAIL 0.732837 17.792549 12.188471
TAIL 0.595606 17.852423 13.484927
TAIL 0.667726 17.860528 14.938542
TAIL 0.686817 17.929021 16.387365
HEAD 0.773978 17.776450 17.894986
TAIL 0.817255 17.680597 19.228793
TAIL 0.755505 19.271211 0.740796
TAIL 0.671144 19.291899 2.131737
TAIL 0.797699 19.303887 3.595543
HEAD 0.684866 19.250885 4.969103
TAIL 0.742461 19.255644 6.449270
TAIL 0.862529 19.347937 7.833855
TAIL 0.800087 19.256566 9.140134
TAIL 0.642280 19.152086 10.689178
HEAD 0.715601 19.405460 12.166209
TAIL 0.698636 19.344958 13.413490
TAIL 0.731115 19.340776 14.894387
TAIL 0.795982 19.309893 16.398908
TAIL 0.759484 19.447907 17.870133
HEAD 0.732016 19.252903 19.225011
TAIL 2.202167 0.653137 0.719398
TAIL 2.108739 0.748499 2.166690
TAIL 2.216967 0.677856 3.552152
TAIL 2.072945 0.682550 5.026950
HEAD 2.196928 0.648417 6.490686
TAIL 2.239688 0.743817 7.991200
TAIL 2.087586 0.625382 9.158663
TAIL 2.249717 0.761026 10.710315
TAIL 2.162855 0.633894 12.317554
HEAD 2.152087 0.722100 13.623269
TAIL 2.177215 0.730277 14.943538
TAIL 2.176533 0.848716 16.524673
TAIL 2.256656 0.677770 17.786457
TAIL 2.133872 0.718266 19.363871
HEAD 2.021967 2.252111 0.702999
TAIL 2.112366 2.070564 2.024653
TAIL 2.201655 2.148094 3.479289
TAIL 2.050352 2.118873 5.119216
TAIL 2.124315 2.035490 6.411018
HEAD 2.123377 1.950222 7.853265
TAIL 2.126362 2.192586 9.417783
TAIL 2.223326 2.123651 10.635248
TAIL 2.326669 2.147087 12.143852
TAIL 2.141134 2.157006 13.561117
HEAD 2.101881 2.103796 14.997660
TAIL 2.104041 2.091940 16.436174
TAIL 2.124644 2.250285 17.667788
TAIL 2.220822 2.231863 19.137615
TAIL 2.118379 3.544897 0.613749
HEAD 2.087299 3.492102 2.268019
TAIL 2.209691 3.662254 3.622977
TAIL 2.062211 3.533963 5.034955
TAIL 2.055562 3.622357 6.411405
TAIL 2.116084 3.622211 7.888876
HEAD 2.117074 3.654238 9.208495
TAIL 2.186853 3.613793 10.692175
TAIL 2.166152 3.482063 12.208859
TAIL 2.129650 3.534091 13.646358
TAIL 2.092547 3.470824 14.888812
HEAD 2.186144 3.479969 16.553914
TAIL 1.994148 3.692604 17.872216
TAIL 2.135949 3.532506 19.314224
TAIL 2.140169 5.078807 0.722445
TAIL 2.153593 4.974028 2.138790
HEAD 2.164843 4.877845 3.475130
TAIL 2.195947 5.012205 4.986858
TAIL 2.144174 5.024827 6.390017
TAIL 2.087264 5.013989 7.787259
TAIL 2.172018 4.878387 9.359225
HEAD 2.176614 5.018288 10.784478
TAIL 2.261820 5.072455 12.011366
TAIL 2.051459 4.955370 13.573292
TAIL 2.179833 4.948161 15.013340
TAIL 2.088901 4.956320 16.328096
HEAD 2.076912 4.903451 17.787438
TAIL 2.218117 4.932186 19.473742
TAIL 2.178094 6.441774 0.652974
TAIL 2.192879 6.387454 2.151572
TAIL 2.325720 6.421710 3.653520
HEAD 2.092630 6.426072 5.126486
TAIL 2.098074 6.558032 6.479125
TAIL 2.102681 6.473743 7.926611
TAIL 2.187272 6.316413 9.233776
TAIL 2.125177 6.423255 10.758619
HEAD 2.155550 6.333190 12.170014
TAIL 2.186470 6.468556 13.648627
TAIL 2.202423 6.461370 14.994988
TAIL 2.024217 6.459258 16.443406
TAIL 2.162256 6.337375 17.779925
HEAD 2.218082 6.425746 19.334393
TAIL 2.144880 7.859268 0.781306
TAIL 2.105997 7.864009 2.109837
TAIL 2.111822 7.835059 3.587295
TAIL 2.108661 7.946840 4.936099
HEAD 2.129509 7.825733 6.531927
TAIL 2.156897 7.930846 7.751031
TAIL 2.161932 7.920688 9.291592
TAIL 2.218963 7.820194 10.814953
TAIL 2.307064 7.831226 12.111036
HEAD 2.246670 7.969969 13.534081
TAIL 2.112844 7.837015 14.903968
TAIL 2.077239 7.785419 16.373729
TAIL 2.140380 7.873872 17.967893
TAIL 2.071546 7.927452 19.270429
HEAD 2.139324 9.333916 0.634091
TAIL 2.170172 9.297604 2.178032
TAIL 2.163512 9.461093 3.525876
TAIL 2.104929 9.241204 4.960323
TAIL 2.097329 9.370644 6.530036
HEAD 2.102090 9.226260 7.890815
TAIL 2.103413 9.330924 9.300209
TAIL 2.034590 9.396250 10.842563
TAIL 2.099087 9.258021 12.163276
TAIL 2.166747 9.332753 13.715015
HEAD 2.130218 9.228693 14.901477
TAIL 2.090648 9.283348 16.556754
TAIL 2.105885 9.301699 17.855970
TAIL 2.227742 9.466209 19.247795
TAIL 2.107897 10.788869 0.762992
HEAD 2.274765 10.755995 2.117193
TAIL 2.185047 10.793479 3.630034
TAIL 2.179091 10.790477 5.083521
TAIL 2.241583 10.760622 6.416634
TAIL 2.153337 10.800465 7.798790
HEAD 2.169191 10.686190 9.287767
TAIL 2.234175 10.727936 10.717603
TAIL 2.045725 10.767590 12.188963
TAIL 2.297375 10.692302 13.587082
TAIL 2.160670 10.826961 14.993193
HEAD 2.162787 10.757707 16.441901
TAIL 2.110969 10.728149 17.933831
TAIL 2.069535 10.723784 19.235706
TAIL 2.228218 12.034058 0.674363
TAIL 2.169801 12.254680 2.138161
HEAD 2.103200 12.277226 3.467999
TAIL 1.985800 12.174287 4.964139
TAIL 2.069912 12.193454 6.445986
TAIL 2.102566 12.051407 7.919461
TAIL 2.189300 12.135773 9.417617
HEAD 2.066423 12.033891 10.664864
TAIL 2.139601 12.160239 12.125626
TAIL 2.168004 12.053461 13.674555
TAIL 2.136989 12.222664 15.024480
TAIL 2.175482 12.183555 16.460551
HEAD 2.188766 12.237797 17.871180
TAIL 2.193500 12.136447 19.388580
TAIL 2.094543 13.700067 0.711417
TAIL 2.040659 13.580579 2.094211
TAIL 2.202903 13.524813 3.539558
HEAD 2.007890 13.539121 4.826866
TAIL 2.029721 13.625744 6.484700
TAIL 2.173247 13.502359 7.853735
TAIL 2.142600 13.488688 9.393100
TAIL 2.205526 13.555645 10.716206
HEAD 2.157742 13.425590 12.125202
TAIL 2.094144 13.499884 13.551350
TAIL 2.271263 13.617203 14.959202
TAIL 2.183756 13.671383 16.494617
TAIL 2.147116 13.525219 17.907016
HEAD 2.170963 13.635371 19.331084
TAIL 2.217825 14.961769 0.808385
TAIL 2.156971 15.148233 2.093629
TAIL 2.266855 15.014136 3.524899
TAIL 2.108294 14.977118 5.030298
HEAD 2.180203 14.959021 6.426832
TAIL 2.295876 15.123396 7.888309
TAIL 2.145572 15.008574 9.329537
TAIL 2.069801 14.981616 10.595101
TAIL 2.171373 15.046228 12.108344
HEAD 2.255285 14.912445 13.466830
TAIL 2.158889 15.074793 15.120281
TAIL 2.110080 15.077049 16.425821
TAIL 2.130527 15.063119 17.903737
TAIL 2.030258 15.105467 19.384292
HEAD 2.098174 16.456843 0.749574
TAIL 2.161477 16.389264 2.094884
TAIL 2.141032 16.512338 3.610257
TAIL 2.116385 16.483693 4.796533
TAIL 2.224912 16.304306 6.402683
HEAD 2.062881 16.336094 7.940059
TAIL 2.109450 16.453322 9.282363
TAIL 2.176931 16.434059 10.622643
TAIL 2.214019 16.393303 12.031673
TAIL 2.112277 16.535769 13.632159
HEAD 2.117953 16.403624 14.977026
TAIL 2.291196 16.455853 16.459289
TAIL 2.216449 16.445628 17.838640
TAIL 2.128832 16.423457 19.283056
TAIL 2.194831 17.860853 0.766617
HEAD 2.137092 17.862760 2.000129
TAIL 2.208309 17.881892 3.642715
TAIL 1.935982 18.006312 4.990029
TAIL 2.222013 17.782864 6.472341
TAIL 2.067613 17.812588 7.993859
HEAD 2.129237 17.872674 9.347862
TAIL 2.178263 17.867887 10.740354
TAIL 2.314530 17.853027 12.157221
TAIL 2.217904 17.936109 13.656216
TAIL 2.188481 17.775500 15.116674
HEAD 2.060975 17.878760 16.374695
TAIL 2.138276 17.880626 17.880097
TAIL 2.172994 17.972408 19.318110
TAIL 2.125417 19.354578 0.799248
TAIL 2.055171 19.328386 2.192941
HEAD 2.121603 19.383979 3.560710
TAIL 2.151827 19.273352 5.001113
TAIL 2.064552 19.182854 6.542465
TAIL 2.082360 19.214901 7.703329
TAIL 2.097217 19.191208 9.403001
HEAD 2.214987 19.236561 10.875174
TAIL 2.212983 19.262512 11.964328
TAIL 2.306496 19.186459 13.453900
TAIL 2.215898 19.459982 15.098877
TAIL 2.183136 19.328197 16.489530
HEAD 2.197066 19.305799 17.864586
TAIL 2.138386 19.231860 19.265666
TAIL 3.450503 0.707261 0.643672
TAIL 3.492601 0.727135 2.242286
TAIL 3.637023 0.602107 3.500741
HEAD 3.638627 0.644108 4.983955
TAIL 3.610718 0.645118 6.436098
TAIL 3.476141 0.671331 7.879984
TAIL 3.457643 0.745748 9.284312
TAIL 3.610892 0.730280 10.811724
WATER 3.580373 0.683614 12.151593
WATER 3.610236 0.717776 13.574328
WATER 3.521286 0.666936 14.899814
WATER 3.696398 0.625438 16.379078
WATER 3.520114 0.778209 17.836075
WATER 3.660553 0.666179 19.305642
WATER 3.511761 2.296082 0.629457
WATER 3.593559 2.188127 2.172414
WATER 3.558194 2.133584 3.574558
WATER 3.560928 2.211706 5.157895
WATER 3.531608 2.045014 6.422266
WATER 3.755694 2.085452 7.974223
WATER 3.691264 2.103315 9.326356
WATER 3.687743 2.115777 10.699744
WATER 3.529880 2.070375 12.096480
WATER 3.484004 2.145292 13.516430
WATER 3.588128 2.031722 15.023634
WATER 3.630966 2.000447 16.455290
WATER 3.659119 2.056454 17.976612
WATER 3.601359 2.092499 19.281731
WATER 3.611309 3.576858 0.752768
WATER 3.505666 3.583526 2.041878
WATER 3.563484 3.506864 3.518891
WATER 3.659721 3.649379 5.043510
WATER 3.493406 3.548828 6.515221
WATER 3.581551 3.737095 7.885237
WATER 3.585146 3.549349 9.295253
WATER 3.560538 3.622008 10.782622
WATER 3.515286 3.476341 12.011700
WATER 3.607714 3.492617 13.417651
WATER 3.599184 3.749500 14.999566
WATER 3.631321 3.577274 16.421508
WATER 3.637077 3.550695 17.876242
WATER 3.594407 3.523708 19.356574
WATER 3.558931 4.946018 0.752608
WATER 3.507252 5.002013 2.142206
WATER 3.648993 5.033907 3.569641
WATER 3.629840 5.099301 5.039844
WATER 3.572168 4.906297 6.352492
WATER 3.549627 4.956463 7.843788
WATER 3.575475 5.037835 9.280679
WATER 3.606179 5.004605 10.573181
WATER 3.504333 4.989708 12.056450
WATER 3.614281 5.109339 13.658483
WATER 3.556183 5.106480 15.010619
WATER 3.547351 4.956186 16.406966
WATER 3.543702 5.012173 17.868612
WATER 3.571646 5.031210 19.370760
WATER 3.639254 6.322507 0.531863
WATER 3.638166 6.330937 2.126802
WATER 3.487849 6.299859 3.610104
WATER 3.625654 6.387392 4.814926
WATER 3.532411 6.456557 6.322935
WATER 3.584526 6.427478 7.898521
WATER 3.579970 6.359067 9.371184
WATER 3.560105 6.426621 10.647624
WATER 3.539766 6.365371 12.130504
WATER 3.693693 6.330578 13.456174
WATER 3.676512 6.413620 14.952209
WATER 3.645707 6.385313 16.559001
WATER 3.619852 6.393721 18.011236
WATER 3.528163 6.481578 19.307092
WATER 3.664410 7.968679 0.716572
WATER 3.517613 7.889998 2.094449
WATER 3.715242 7.866895 3.545334
WATER 3.584620 7.760920 4.930599
WATER 3.657172 7.810222 6.353792
WATER 3.609761 7.941836 7.908497
WATER 3.642575 7.803086 9.184156
WATER 3.678667 7.834094 10.696369
WATER 3.666300 7.896874 12.175421
WATER 3.726072 7.811177 13.637703
WATER 3.575501 7.876328 15.109176
WATER 3.607703 7.895593 16.505179
WATER 3.545361 7.797199 17.782514
WATER 3.430975 8.004015 19.206914
WATER 3.555625 9.265942 0.736243
WATER 3.629696 9.347177 2.101209
WATER 3.559491 9.305899 3.553665
WATER 3.686239 9.320784 5.052491
WATER 3.618777 9.369534 6.441502
WATER 3.478798 9.314263 7.810617
WATER 3.533670 9.327597 9.374163
WATER 3.572948 9.307774 10.835872
WATER 3.588625 9.471549 12.183251
WATER 3.445660 9.339524 13.598654
WATER 3.663554 9.333799 14.990110
WATER 3.483979 9.270784 16.367820
WATER 3.529963 9.327756 17.976422
WATER 3.599619 9.200294 19.317472
WATER 3.656902 10.670730 0.704713
WATER 3.572478 10.658222 2.189163
WATER 3.562789 10.744252 3.508036
WATER 3.540182 10.765884 4.973369
WATER 3.694783 10.685740 6.444620
WATER 3.638042 10.612974 7.731371
WATER 3.462453 10.804470 9.246296
WATER 3.754157 10.673982 10.727468
WATER 3.681579 10.857578 12.290107
WATER 3.657740 10.787433 13.613752
WATER 3.627026 10.674915 14.941557
WATER 3.571188 10.702130 16.396198
WATER 3.621171 10.782522 17.863458
WATER 3.676966 10.632736 19.271881
WATER 3.520227 12.009533 0.708380
WATER 3.562732 12.250961 2.187915
WATER 3.498272 12.275292 3.658645
WATER 3.613007 12.126680 4.931469
WATER 3.544842 12.220625 6.563185
WATER 3.681660 12.107939 7.777170
WATER 3.581492 12.016540 9.308798
WATER 3.560886 12.109569 10.600378
WATER 3.608114 12.104807 12.059292
WATER 3.366267 12.140892 13.698018
WATER 3.690090 12.110207 14.956985
WATER 3.604912 12.071544 16.450128
WATER 3.626149 12.230495 17.849989
WATER 3.556880 12.080144 19.226651
WATER 3.555252 13.597669 0.779542
WATER 3.514059 13.678049 2.123491
WATER 3.569902 13.518056 3.398269
WATER 3.634575 13.624060 4.979905
WATER 3.576214 13.608281 6.316961
WATER 3.533639 13.628162 7.767551
WATER 3.592397 13.474530 9.319031
WATER 3.568883 13.456062 10.797481
WATER 3.518958 13.513553 12.157184
WATER 3.653474 13.498870 13.575834
WATER 3.602058 13.620936 15.012603
WATER 3.545212 13.512315 16.434725
WATER 3.494847 13.362761 17.888326
WATER 3.635995 13.402648 19.213591
WATER 3.615654 15.146964 0.715771
WATER 3.519428 14.986936 2.241063
WATER 3.525288 14.942915 3.536947
WATER 3.503334 15.008762 5.116048
WATER 3.594506 14.981975 6.407728
WATER 3.459772 15.063079 7.851583
WATER 3.558537 15.228079 9.307054
WATER 3.517729 14.969546 10.796318
WATER 3.579519 14.897266 12.208516
WATER 3.523704 15.133807 13.648575
WATER 3.539477 15.091501 15.004847
WATER 3.632341 15.034624 16.368117
WATER 3.525461 15.073569 17.833230
WATER 3.542597 14.931777 19.315971
WATER 3.718752 16.352319 0.716016
WATER 3.672301 16.422883 2.175169
WATER 3.495543 16.459165 3.558061
WATER 3.641838 16.513385 5.184969
WATER 3.612831 16.451843 6.442456
WATER 3.546202 16.452749 7.836043
WATER 3.583461 16.522686 9.213818
WATER 3.652848 16.522651 10.705852
WATER 3.419868 16.385156 12.235500
WATER 3.569795 16.357193 13.535373
WATER 3.631473 16.467624 14.982933
WATER 3.545227 16.400589 16.362685
WATER 3.686813 16.405549 17.944083
WATER 3.680094 16.499879 19.254884
WATER 3.600266 17.855415 0.649736
WATER 3.594597 17.772926 2.227691
WATER 3.538242 17.871511 3.591663
WATER 3.552935 17.899050 4.966078
WATER 3.633664 17.761001 6.437599
WATER 3.709923 17.785691 7.808733
WATER 3.608136 17.869970 9.310759
WATER 3.606371 17.902480 10.793550
WATER 3.600701 17.839910 12.190898
WATER 3.707134 17.847669 13.501819
WATER 3.650506 17.848544 14.844809
WATER 3.631959 17.818905 16.422105
WATER 3.595141 17.870750 17.907818
WATER 3.540322 17.893793 19.267175
WATER 3.624201 19.329669 0.647469
WATER 3.648999 19.247431 2.200576
WATER 3.597663 19.417013 3.555467
WATER 3.546477 19.284327 4.978344
WATER 3.628567 19.170264 6.353308
WATER 3.495157 19.353593 7.979330
WATER 3.563968 19.273656 9.290718
WATER 3.654420 19.219475 10.731312
WATER 3.641086 19.321507 12.156399
WATER 3.642932 19.092626 13.619848
WATER 3.524709 19.154955 15.036514
WATER 3.669547 19.275897 16.496634
WATER 3.686591 19.379637 17.974283
WATER 3.624438 19.291102 19.171288
WATER 4.982424 0.654054 0.869353
WATER 4.987437 0.723086 2.182249
WATER 5.003114 0.835361 3.526954
WATER 5.013901 0.661252 4.905713
WATER 4.956302 0.711640 6.397907
WATER 4.950541 0.613834 7.851207
WATER 4.892520 0.768575 9.291603
WATER 4.895889 0.692199 10.660560
WATER 5.022798 0.810032 12.008916
WATER 5.008216 0.702848 13.619381
WATER 5.015228 0.660574 14.977210
WATER 4.943141 0.791143 16.430094
WATER 5.135799 0.709953 17.806542
WATER 4.891878 0.585490 19.172562
WATER 5.019080 2.179195 0.601344
WATER 5.063931 2.108353 2.153342
WATER 5.115159 2.206917 3.552248
WATER 4.936343 1.989156 4.948632
WATER 4.984919 2.072344 6.419196
WATER 5.005489 2.126796 7.810714
WATER 5.012047 2.174424 9.207829
WATER 5.100781 2.135815 10.715632
WATER 5.050587 2.159515 12.210938
WATER 5.020509 2.099112 13.597250
WATER 4.918305 2.150611 14.997626
WATER 4.985135 2.133676 16.294154
WATER 4.960805 2.149489 17.868561
WATER 4.926595 2.233265 19.223845
WATER 5.069247 3.601942 0.668127
WATER 5.126808 3.486169 2.208511
WATER 5.071470 3.523527 3.670890
WATER 4.982140 3.592050 5.018594
WATER 4.990407 3.629343 6.485249
WATER 4.875105 3.664596 7.738393
WATER 5.073753 3.651908 9.207788
WATER 4.970656 3.492450 10.698934
WATER 4.977998 3.627119 12.236451
WATER 5.099692 3.531274 13.556484
WATER 4.879754 3.513866 15.068918
WATER 5.115399 3.483261 16.386253
WATER 4.998114 3.591440 17.799314
WATER 5.030290 3.537583 19.284682
WATER 5.039020 5.000459 0.683115
WATER 4.992171 4.993688 2.116428
WATER 4.981515 5.114189 3.611494
WATER 4.978894 5.049782 4.976156
WATER 5.083795 5.026403 6.420907
WATER 5.031980 4.887795 7.776659
WATER 4.914720 5.010210 9.409465
WATER 5.159379 5.045575 10.750060
WATER 4.871353 4.961238 12.086587
WATER 4.955654 4.987990 13.537708
WATER 4.858621 5.053422 14.923375
WATER 5.017089 5.148149 16.362901
WATER 4.819265 4.979571 17.935783
WATER 5.139882 4.912175 19.321193
WATER 4.966764 6.421004 0.903167
WATER 4.892645 6.446696 2.176264
WATER 5.077556 6.435570 3.593432
WATER 4.972025 6.447795 4.975486
WATER 5.044398 6.402171 6.455507
WATER 4.997910 6.509004 7.853472
WATER 4.873355 6.518709 9.221019
WATER 4.953302 6.386024 10.812460
WATER 4.847452 6.652696 12.218290
WATER 5.015946 6.424650 13.591825
WATER 5.037223 6.474658 15.039686
WATER 5.006399 6.414476 16.417766
WATER 4.986078 6.509555 17.899540
WATER 4.789972 6.475421 19.299624
WATER 4.998664 7.829392 0.794579
WATER 5.067680 7.801937 2.171932
WATER 4.930596 7.758599 3.526663
WATER 5.061600 7.925223 5.036649
WATER 5.051793 7.894013 6.382751
WATER 5.030852 7.914315 7.911021
WATER 5.084922 7.907736 9.310818
WATER 5.076439 7.855248 10.651295
WATER 4.988352 7.803936 12.094630
WATER 4.989677 7.800541 13.549431
WATER 4.864742 7.872378 15.000086
WATER 4.941637 7.904232 16.495541
WATER 4.885174 7.802663 17.802204
WATER 4.932864 7.916391 19.271870
WATER 4.981106 9.142581 0.759673
WATER 4.911482 9.289995 2.162670
WATER 5.097190 9.192227 3.355749
WATER 5.013132 9.414322 5.088496
WATER 5.014976 9.250597 6.486223
WATER 4.930461 9.319740 7.893248
WATER 5.075729 9.482833 9.313744
WATER 4.963645 9.283888 10.587923
WATER 4.950378 9.256480 12.105422
WATER 5.010882 9.226970 13.651502
WATER 5.000015 9.285050 14.976579
WATER 5.011085 9.344650 16.366634
WATER 4.952992 9.264020 17.761009
WATER 4.941482 9.251699 19.348171
WATER 5.018754 10.728114 0.775064
WATER 4.990188 10.742176 2.135484
WATER 5.018954 10.672660 3.397227
WATER 4.990409 10.815911 5.066158
WATER 5.068957 10.802581 6.434904
WATER 5.014094 10.670168 7.834566
WATER 5.043984 10.800277 9.275754
WATER 4.967844 10.714323 10.757229
WATER 4.896868 10.550273 12.103533
WATER 4.912806 10.677990 13.560873
WATER 4.967625 10.818033 15.023339
WATER 5.021462 10.758729 16.347226
WATER 5.074222 10.708874 17.905034
WATER 4.923439 10.603303 19.344135
WATER 5.026886 12.078425 0.652167
WATER 5.080388 12.057899 2.260191
WATER 4.935670 12.188457 3.547956
WATER 5.043085 12.103992 4.988372
WATER 5.002923 12.071272 6.481487
WATER 4.963342 12.126529 7.786118
WATER 4.816976 12.129212 9.458044
WATER 5.056043 12.141481 10.695508
WATER 5.001605 12.181937 12.058513
WATER 5.079594 12.193956 13.622728
WATER 5.031320 12.144258 15.048062
WATER 5.042272 12.117569 16.387600
WATER 5.007275 12.253501 17.768635
WATER 4.895177 12.154626 19.289349
WATER 5.012382 13.588854 0.698343
WATER 5.106419 13.457078 2.083679
WATER 4.992625 13.454058 3.558868
WATER 5.118676 13.572920 5.016479
WATER 4.909988 13.527403 6.401772
WATER 4.977306 13.662975 7.896978
WATER 4.920610 13.589036 9.321302
WATER 5.081439 13.684324 10.641779
WATER 4.942082 13.481602 12.126141
WATER 5.033311 13.641952 13.566003
WATER 4.977154 13.582268 14.940347
WATER 5.149253 13.456596 16.441767
WATER 5.144543 13.571914 17.843569
WATER 4.974468 13.558543 19.383775
WATER 4.842010 15.109531 0.612574
WATER 4.980953 14.969340 2.184897
WATER 4.885848 15.033012 3.716022
WATER 4.902630 15.013550 4.952716
WATER 5.030421 15.001368 6.382751
WATER 5.034848 15.128882 7.843507
WATER 5.051411 14.907623 9.217397
WATER 5.033743 15.106008 10.739687
WATER 4.977639 14.999949 12.053542
WATER 5.043180 15.063024 13.539136
WATER 4.966426 15.018991 14.968806
WATER 4.995276 15.149980 16.410927
WATER 4.974404 14.953747 17.910299
WATER 4.987055 14.953616 19.380093
WATER 5.101400 16.385684 0.580961
WATER 5.071965 16.379669 2.199330
WATER 4.859278 16.492328 3.484916
WATER 5.052197 16.429591 4.931861
WATER 4.970926 16.477594 6.436135
WATER 5.041744 16.569746 7.745411
WATER 5.115515 16.436025 9.221515
WATER 4.904978 16.415063 10.780118
WATER 4.990889 16.536511 12.039202
WATER 4.999137 16.339115 13.597402
WATER 5.063349 16.398517 14.813985
WATER 5.014211 16.459767 16.457450
WATER 5.088270 16.352068 17.905730
WATER 5.085179 16.301529 19.308547
WATER 4.963987 17.851320 0.739120
WATER 4.965198 17.808878 2.145297
WATER 4.922340 17.779584 3.619955
WATER 4.917943 17.904737 5.033042
WATER 4.876728 17.808745 6.513865
WATER 4.929917 17.823971 7.890147
WATER 5.055956 17.839176 9.243035
WATER 5.101598 17.981350 10.784204
WATER 5.006094 17.799410 12.083540
WATER 5.037322 17.887028 13.671543
WATER 5.046461 17.749780 15.075139
WATER 4.928710 17.829716 16.446443
WATER 5.142548 18.079280 17.900480
WATER 4.986915 17.895322 19.349118
WATER 4.977095 19.413944 0.730719
WATER 5.035553 19.333280 2.172970
WATER 5.059924 19.241625 3.531550
WATER 4.921418 19.317107 5.055638
WATER 5.032698 19.405321 6.428172
WATER 5.047767 19.207736 7.829493
WATER 5.049681 19.346364 9.264717
WATER 4.994886 19.177295 10.688784
WATER 5.063599 19.326800 12.178619
WATER 5.003555 19.286219 13.524263
WATER 5.049916 19.315784 15.035144
WATER 4.962426 19.131904 16.506939
WATER 4.965797 19.224087 17.906677
WATER 4.971999 19.361424 19.329786
WATER 6.477398 0.616717 0.800853
WATER 6.447232 0.687909 2.153099
WATER 6.301697 0.743475 3.497902
WATER 6.331952 0.605546 5.079478
WATER 6.383624 0.823838 6.390300
WATER 6.306617 0.634534 7.945415
WATER 6.417436 0.675122 9.297144
WATER 6.464413 0.794100 10.817750
WATER 6.402874 0.619568 12.113324
WATER 6.447163 0.645446 13.503061
WATER 6.453128 0.710811 15.002343
WATER 6.374393 0.697829 16.362555
WATER 6.492157 0.788232 17.725272
WATER 6.362178 0.607391 19.239284
WATER 6.422612 2.039311 0.648439
WATER 6.356860 2.157662 2.147810
WATER 6.377019 2.155487 3.532380
WATER 6.409167 2.262389 5.095747
WATER 6.335744 2.202124 6.486528
WATER 6.346553 2.201341 7.966995
WATER 6.348390 2.077321 9.358404
WATER 6.447964 2.182248 10.738614
WATER 6.456478 2.048109 12.217666
WATER 6.512114 2.126472 13.568323
WATER 6.319207 2.179590 15.040861
WATER 6.424129 2.223168 16.404709
WATER 6.468900 2.070024 17.855461
WATER 6.416118 2.158951 19.259320
WATER 6.419181 3.630432 0.683088
WATER 6.313816 3.696399 2.241532
WATER 6.336267 3.620693 3.535502
WATER 6.447392 3.592445 4.983257
WATER 6.372588 3.522104 6.363129
WATER 6.369156 3.566630 7.806017
WATER 6.477289 3.677660 9.244282
WATER 6.445672 3.607120 10.748000
WATER 6.433997 3.624477 12.177303
WATER 6.340167 3.633511 13.634806
WATER 6.374051 3.574138 15.048809
WATER 6.413620 3.648070 16.597419
WATER 6.372430 3.472783 17.878844
WATER 6.480112 3.554938 19.389519
WATER 6.332957 5.049494 0.671010
WATER 6.551384 5.142323 2.088096
WATER 6.389317 5.061399 3.543776
WATER 6.425328 5.001813 4.862880
WATER 6.427583 4.950734 6.393348
WATER 6.531688 4.910250 7.915229
WATER 6.408646 4.980017 9.342169
WATER 6.452861 5.040758 10.783442
WATER 6.404907 4.956269 12.065346
WATER 6.369614 5.210650 13.660334
WATER 6.332066 4.905539 15.034419
WATER 6.467662 5.039206 16.410360
WATER 6.419610 5.023420 17.863278
WATER 6.270050 4.983586 19.224900
WATER 6.441087 6.641804 0.740534
WATER 6.406176 6.494414 2.177335
WATER 6.458578 6.471918 3.718325
WATER 6.347794 6.462402 4.933830
WATER 6.468251 6.362951 6.398760
WATER 6.407494 6.498273 7.922747
WATER 6.339592 6.432495 9.235030
WATER 6.338678 6.413070 10.692251
WATER 6.601908 6.459497 12.044456
WATER 6.388230 6.501527 13.720603
WATER 6.315287 6.294291 15.133640
WATER 6.456401 6.366551 16.466759
WATER 6.240304 6.428813 17.880559
WATER 6.494591 6.356150 19.291835
WATER 6.362470 7.875385 0.650332
WATER 6.399421 7.786013 2.189367
WATER 6.489889 7.840384 3.574160
WATER 6.325101 7.835737 4.996414
WATER 6.615771 7.777717 6.533156
WATER 6.499776 7.877188 7.982759
WATER 6.455150 7.884940 9.281920
WATER 6.515969 7.935462 10.669594
WATER 6.334339 7.842644 12.085712
WATER 6.424034 7.945531 13.538764
WATER 6.425513 7.861287 15.060602
WATER 6.268079 7.813807 16.443663
WATER 6.514291 7.822007 17.723103
WATER 6.472837 7.811760 19.200738
WATER 6.383975 9.272534 0.671090
WATER 6.271031 9.349790 2.233920
WATER 6.475109 9.204451 3.557036
WATER 6.428106 9.328485 5.047739
WATER 6.376130 9.291571 6.461234
WATER 6.532559 9.336036 7.913504
WATER 6.434559 9.386461 9.314983
WATER 6.367065 9.385955 10.764136
WATER 6.396925 9.251465 12.164041
WATER 6.461656 9.299807 13.593665
WATER 6.549997 9.362253 15.013617
WATER 6.495808 9.211963 16.456995
WATER 6.557808 9.270140 17.796598
WATER 6.381994 9.207883 19.229660
WATER 6.402107 10.613888 0.715401
WATER 6.493020 10.649446 2.251377
WATER 6.465057 10.787899 3.524440
WATER 6.489609 10.636290 5.063589
WATER 6.440846 10.753804 6.344600
WATER 6.364638 10.756945 7.789404
WATER 6.461658 10.616633 9.346298
WATER 6.340534 10.753736 10.758974
WATER 6.378802 10.755859 12.161460
WATER 6.390083 10.642246 13.431241
WATER 6.453546 10.602514 15.006810
WATER 6.409754 10.762796 16.406997